ITEM: TIMESTEP
0
ITEM: NUMBER OF ATOMS
22718
ITEM: BOX BOUNDS pp pp pp
-2.0173155220000001e+00 4.7172784477999997e+01
2.2129773230000001e+00 7.4632777322999999e+01
1.0385463210000001e+00 7.6706446321000001e+01
ITEM: ATOMS id type xs ys zs
7460 2 0.0985699 0.00402451 0.0298805
7467 2 0.103294 0.0223695 0.00217187
7483 4 0.0404082 0.0792645 0.00747244
7485 2 0.078429 0.065419 0.00108276
7486 2 0.0478513 0.0845741 0.0202041
7487 2 0.0294816 0.0661838 0.00950836
14185 2 0.0129696 0.0905268 0.0551478
15773 4 0.0996405 0.0871553 0.0673752
15776 2 0.102663 0.079211 0.0551417
15777 2 0.0792807 0.0844005 0.0727791
15778 4 0.121498 0.0818788 0.081043
15781 2 0.141713 0.0837669 0.0750961
15784 4 0.120571 0.0492827 0.0698845
15786 2 0.104276 0.0526797 0.0604743
15787 2 0.119038 0.034705 0.0738444
20916 2 0.118642 0.0836959 0.0256445
20923 2 0.105224 0.062982 0.00344695
5964 1 0.20278 0.0803474 0.0134739
5967 1 0.251644 0.0611533 0.0134816
5970 1 0.280437 0.0611524 0.0134782
5987 1 0.212903 0.0734819 0.0294279
5988 1 0.202788 0.0803728 0.0453746
5990 1 0.237826 0.0636903 0.0294324
5991 1 0.251659 0.0611824 0.0453819
5994 1 0.280452 0.0611746 0.045378
6011 1 0.212913 0.0735081 0.0613282
6012 1 0.202794 0.0803939 0.0772755
6014 1 0.237841 0.0637213 0.0613325
6015 1 0.251674 0.0612137 0.0772818
6018 1 0.280467 0.061201 0.0772779
7224 4 0.190084 0.0302331 0.0790168
7225 4 0.180198 0.0131185 0.0687895
7227 2 0.192344 0.0419925 0.0699334
7228 2 0.160187 0.0161074 0.0629645
7229 2 0.178594 0.00140348 0.0779836
7230 4 0.200801 0.00861909 0.0540836
7232 2 0.220731 0.00583522 0.0601142
7233 2 0.202288 0.0205041 0.045083
15785 4 0.148498 0.0529635 0.0613871
15788 2 0.163766 0.054574 0.0718961
15789 2 0.147325 0.0656745 0.0534655
15790 4 0.156041 0.0365083 0.0494652
15791 4 0.186668 0.0373188 0.0453187
15792 2 0.144249 0.0373714 0.0371413
15793 2 0.15122 0.0235864 0.0564336
15794 2 0.1981 0.0323903 0.0568884
15795 2 0.192329 0.0516774 0.0423288
15796 4 0.192654 0.024908 0.0292569
15797 4 0.18905 0.0362989 0.0122314
15798 2 0.178386 0.013212 0.0292913
15799 2 0.213671 0.0198093 0.0301783
15800 2 0.199818 0.0495208 0.0137135
15801 2 0.167249 0.0388057 0.0100601
16048 4 0.276268 0.0135105 0.00538436
16050 2 0.262634 0.0255491 0.00523309
16052 2 0.273935 0.0103292 0.0337854
20917 2 0.149729 0.0837861 0.013059
21361 2 0.245234 0.0197887 0.0779473
5969 1 0.329314 0.0803357 0.013459
5989 1 0.294272 0.0636821 0.0294239
5992 1 0.3192 0.0734683 0.0294146
5993 1 0.329327 0.0803581 0.0453575
6013 1 0.294287 0.0637038 0.0613234
6016 1 0.319217 0.0734899 0.0613135
6017 1 0.329343 0.0803804 0.0772563
10074 2 0.403381 0.087888 0.0781794
10075 2 0.416889 0.0807846 0.057121
16049 4 0.289831 0.0116985 0.0236451
16053 2 0.302095 0.024116 0.026199
16059 2 0.343054 0.00601217 0.0371808
16071 2 0.370755 0.00484731 0.0430393
16072 4 0.413856 0.00507247 0.0365431
16073 4 0.408335 0.02418 0.0283639
16075 2 0.42384 0.00667533 0.0494603
16076 2 0.398904 0.0331143 0.0383954
16077 2 0.394538 0.0225478 0.0170303
21352 4 0.29957 0.00938197 0.0746255
21354 2 0.295617 0.0189096 0.0635992
21355 2 0.32148 0.00895705 0.0775058
7328 2 0.459673 0.0253362 0.0822279
10059 4 0.505896 0.085435 0.0684871
10062 2 0.512902 0.0854813 0.0822923
10063 2 0.520776 0.0782425 0.0600978
10064 4 0.478041 0.0758239 0.0671825
10065 4 0.458509 0.0846239 0.0806749
10066 2 0.48059 0.0610434 0.0700941
10067 2 0.470012 0.0776135 0.0537232
16078 4 0.43546 0.0326195 0.0221981
16079 4 0.446088 0.0215743 0.00623783
16080 2 0.450201 0.031923 0.0331093
16081 2 0.432052 0.0470931 0.0183856
16083 2 0.450227 0.00730021 0.0104158
16085 4 0.49466 0.0286824 0.0136403
16088 2 0.494249 0.0145288 0.0189093
16089 2 0.49069 0.0386332 0.024316
16090 4 0.522528 0.0326524 0.00518009
16091 3 0.54475 0.0308879 0.0194161
16094 2 0.54441 0.0167828 0.0248052
16095 2 0.540688 0.0409262 0.0300017
16096 2 0.561941 0.0333369 0.0141972
21178 4 0.710716 0.012709 0.0160014
21179 4 0.707016 0.0267606 0.0310865
21180 2 0.696269 0.00123667 0.0176042
21181 2 0.707453 0.0195063 0.00317521
21184 4 0.676422 0.0294707 0.0345423
21185 4 0.672648 0.0391126 0.0525153
21186 2 0.666411 0.0158899 0.0347137
21187 2 0.667787 0.0380548 0.023944
21188 2 0.652482 0.0456676 0.0528637
21189 2 0.688584 0.0496358 0.0541181
21190 4 0.674881 0.0246204 0.0673382
21192 2 0.69403 0.0169522 0.0657496
21193 2 0.657524 0.0150931 0.0664096
21198 2 0.702598 0.0569588 0.0802911
5014 1 0.762927 0.0735265 0.00603327
5016 1 0.787856 0.0637397 0.00602513
5019 1 0.844304 0.0637298 0.00600647
5037 1 0.752822 0.0804067 0.0219854
5038 1 0.762953 0.0735284 0.0379296
5039 1 0.801695 0.0612175 0.0219687
5040 1 0.787879 0.0637394 0.0379222
5042 1 0.830489 0.0612096 0.0219608
5043 1 0.844328 0.0637244 0.0379061
5061 1 0.752841 0.0804071 0.053881
5062 1 0.762964 0.0735225 0.0698256
5063 1 0.801714 0.0612148 0.0538665
5064 1 0.787891 0.063733 0.0698191
5066 1 0.830507 0.0612077 0.0538597
5067 1 0.844346 0.0637216 0.0698057
9258 4 0.793539 0.00126579 0.0657673
9259 4 0.802992 0.0109949 0.0827892
9260 2 0.77374 0.0068102 0.0615839
9261 2 0.808653 0.00329609 0.0552303
9263 2 0.798826 0.0258696 0.081638
9266 2 0.844349 0.0120262 0.0730743
21156 2 0.848941 0.0291669 0.0096842
21172 4 0.759539 0.0195915 0.00911749
21173 4 0.73989 0.00502325 0.0166439
21174 2 0.756464 0.0328767 0.0158753
21175 2 0.780676 0.0149703 0.0108385
21176 2 0.745625 0.00199045 0.0303919
21182 2 0.716307 0.0399581 0.0271745
21183 2 0.716995 0.0214306 0.0430541
5022 1 0.869233 0.0735168 0.00600122
5041 1 0.879365 0.0803909 0.0219487
5046 1 0.86926 0.0735072 0.0379011
5065 1 0.879389 0.0803838 0.0538485
5070 1 0.86928 0.0735025 0.0698013
7494 4 0.976844 0.0786573 0.00627368
7496 2 0.960799 0.078129 0.0163872
7497 2 0.989072 0.0659493 0.00673828
14183 4 0.972193 0.0822172 0.0473118
14186 2 0.980529 0.0681317 0.0477922
14187 2 0.969871 0.0866543 0.0334909
14188 4 0.944476 0.0828206 0.0567569
14189 4 0.927119 0.066387 0.0504706
14191 2 0.947782 0.0819186 0.0711084
14192 2 0.921656 0.0684772 0.0365165
14193 2 0.908606 0.0656172 0.0585921
14194 4 0.943731 0.0484875 0.0524966
14195 4 0.924053 0.0321096 0.0547027
14196 2 0.956836 0.0496728 0.0642213
14197 2 0.956272 0.0465135 0.0406095
14198 2 0.907756 0.0332683 0.0448109
14199 2 0.915349 0.0324822 0.0680887
14200 4 0.939837 0.013969 0.0519656
14202 2 0.956565 0.0133013 0.0615925
14203 2 0.948034 0.0136902 0.0384429
21141 2 0.956165 0.00733449 0.00430706
21153 2 0.899444 0.0297835 0.00739422
21154 4 0.85928 0.0188233 0.00142897
21157 2 0.862434 0.00605196 0.00902658
7493 2 0.00104393 0.0956087 0.0240671
14179 2 0.0216971 0.129406 0.0623087
14180 2 0.00199239 0.115667 0.0365262
15749 4 0.136894 0.169377 0.00632853
15753 2 0.115479 0.173661 0.00716638
15755 4 0.130103 0.17149 0.0391087
15759 2 0.14069 0.169522 0.0517742
15760 4 0.101567 0.16279 0.039985
15761 4 0.104281 0.142347 0.0453051
15762 2 0.091914 0.163873 0.0269131
15763 2 0.0893751 0.170239 0.0498683
15764 2 0.119201 0.141177 0.0560755
15765 2 0.11117 0.134352 0.0337848
15766 4 0.0763971 0.135212 0.0515513
15767 4 0.0771559 0.11397 0.0523472
15768 2 0.0607166 0.139754 0.0421424
15769 2 0.072083 0.140867 0.0647492
15770 2 0.0785798 0.10849 0.0388208
15771 2 0.058435 0.108971 0.0586976
15772 4 0.102113 0.107894 0.0631713
15774 2 0.1028 0.115899 0.0755173
15775 2 0.120604 0.110462 0.0553736
20913 2 0.13397 0.103178 0.0192541
20914 3 0.130334 0.0909478 0.0153784
20919 2 0.0945835 0.0990827 0.000632095
5962 1 0.188389 0.0972851 0.0134628
5977 1 0.280427 0.171732 0.0134069
5980 1 0.251635 0.171737 0.0134099
5983 1 0.20275 0.152566 0.0134253
5984 1 0.188361 0.135627 0.0134373
5985 1 0.184678 0.106688 0.0294074
5986 1 0.188386 0.0973066 0.0453638
6001 1 0.280445 0.171751 0.045305
6003 1 0.237814 0.169227 0.0293626
6004 1 0.251653 0.171751 0.0453087
6005 1 0.184662 0.126244 0.0293942
6006 1 0.212879 0.15945 0.0293713
6007 1 0.202767 0.152582 0.0453272
6008 1 0.188367 0.135647 0.0453395
6009 1 0.184675 0.106707 0.0613094
6010 1 0.188387 0.0973265 0.0772657
6025 1 0.280468 0.171782 0.0772038
6027 1 0.237837 0.169243 0.0612625
6028 1 0.251675 0.171774 0.0772077
6029 1 0.18467 0.126265 0.0612966
6030 1 0.212904 0.159464 0.0612719
6031 1 0.202793 0.152599 0.0772282
6032 1 0.188388 0.135666 0.0772412
10831 4 0.276439 0.125226 0.0184802
10834 2 0.261867 0.136589 0.0203055
10836 4 0.268884 0.108936 0.0306058
10837 4 0.258902 0.116549 0.0484666
10839 2 0.252664 0.100822 0.0242938
10840 2 0.250198 0.105163 0.0562491
10841 2 0.24332 0.127145 0.0460424
10842 4 0.283152 0.12509 0.05841
10843 4 0.272608 0.134919 0.0751052
10846 2 0.25355 0.142126 0.0719019
15754 4 0.146501 0.161974 0.0243564
15756 2 0.168272 0.165023 0.0259433
15757 2 0.143146 0.146964 0.0248091
5972 1 0.343708 0.097273 0.0134468
5975 1 0.343704 0.135616 0.0134219
5978 1 0.329307 0.152551 0.0134131
5995 1 0.347418 0.106678 0.0293889
5996 1 0.343717 0.0972973 0.0453454
5997 1 0.319194 0.15944 0.0293585
5998 1 0.347419 0.126234 0.0293767
5999 1 0.343721 0.13564 0.0453196
6000 1 0.294263 0.169221 0.0293554
6002 1 0.329328 0.152578 0.0453107
6019 1 0.347424 0.106703 0.0612874
6020 1 0.343725 0.0973226 0.0772438
6021 1 0.319219 0.15947 0.0612566
6022 1 0.347429 0.12626 0.0612755
6023 1 0.343733 0.135666 0.0772184
6024 1 0.294285 0.16925 0.0612536
6026 1 0.329349 0.152608 0.0772099
10071 3 0.414128 0.0924857 0.0662145
10076 2 0.404089 0.102003 0.0605523
10835 2 0.297141 0.130019 0.0215089
10838 2 0.286964 0.100248 0.0326191
10844 2 0.293369 0.135081 0.0497054
10845 2 0.297383 0.114036 0.0621263
10847 2 0.28797 0.144916 0.0795831
10041 4 0.530456 0.170642 0.0764301
10045 2 0.514304 0.167658 0.0667902
10046 4 0.549509 0.153866 0.0781619
10047 4 0.554478 0.145612 0.0596857
10051 2 0.557403 0.156926 0.0501749
10052 4 0.529637 0.133936 0.0543417
10053 4 0.530471 0.115471 0.0644213
10054 2 0.530355 0.131381 0.0400192
10055 2 0.510991 0.141535 0.0577362
10056 2 0.534117 0.118251 0.078515
10057 2 0.546998 0.106917 0.0590464
10058 4 0.503044 0.105518 0.0620596
10060 2 0.497444 0.105719 0.047987
10061 2 0.487474 0.11272 0.0698934
10070 4 0.442235 0.100052 0.0714962
10072 2 0.453351 0.104585 0.0596515
10073 2 0.439843 0.111688 0.08071
10050 2 0.572762 0.136879 0.0601239
18583 2 0.68551 0.171923 0.0666041
5029 1 0.787847 0.169292 0.00603681
5030 1 0.844299 0.169297 0.00602607
5032 1 0.762916 0.159507 0.00604171
5035 1 0.734706 0.126294 0.00604592
5036 1 0.734711 0.106737 0.00604448
5049 1 0.830473 0.171812 0.0219761
5052 1 0.801679 0.171812 0.0219828
5053 1 0.787852 0.169295 0.0379321
5054 1 0.844304 0.169286 0.0379222
5055 1 0.752798 0.152632 0.0219905
5056 1 0.762919 0.159514 0.0379373
5057 1 0.738431 0.0973453 0.0219906
5058 1 0.738413 0.13569 0.021993
5059 1 0.734721 0.126296 0.0379411
5060 1 0.734735 0.10674 0.03794
5073 1 0.830478 0.171805 0.0538718
5076 1 0.801684 0.171813 0.0538789
5077 1 0.787855 0.169301 0.0698289
5078 1 0.844313 0.16928 0.0698172
5079 1 0.752798 0.152638 0.0538865
5080 1 0.762918 0.159521 0.0698344
5081 1 0.738451 0.0973461 0.0538857
5082 1 0.738419 0.135693 0.0538889
5083 1 0.734726 0.126296 0.0698367
5084 1 0.734745 0.106739 0.0698354
18580 2 0.726607 0.181509 0.0832002
5021 1 0.897426 0.106735 0.00600022
5024 1 0.897428 0.126292 0.00600568
5027 1 0.86923 0.159511 0.00601838
5044 1 0.893741 0.0973359 0.0219486
5045 1 0.89745 0.106726 0.0378981
5047 1 0.89373 0.135681 0.0219565
5048 1 0.897438 0.126282 0.0379025
5050 1 0.879348 0.152624 0.021964
5051 1 0.869231 0.159498 0.0379145
5068 1 0.893769 0.0973274 0.0538474
5069 1 0.897481 0.10672 0.0697963
5071 1 0.893742 0.135673 0.0538525
5072 1 0.897465 0.126277 0.0697991
5074 1 0.879353 0.152612 0.0538595
5075 1 0.869239 0.15949 0.0698096
7489 4 0.995418 0.0953267 0.0100001
7492 2 0.984922 0.108205 0.00641446
14164 4 0.960099 0.176788 0.0381652
14165 4 0.948033 0.168952 0.0553824
14166 2 0.982306 0.178028 0.0393986
14167 2 0.954986 0.1677 0.0270018
14168 2 0.925717 0.169275 0.0545027
14169 2 0.954899 0.177468 0.0665613
14170 4 0.957879 0.148922 0.0577796
14171 4 0.98909 0.148451 0.0562558
14172 2 0.948749 0.140249 0.0474254
14173 2 0.951582 0.143957 0.0708946
14174 2 0.997744 0.159128 0.0649303
14175 2 0.994887 0.151154 0.042456
14176 4 0.999343 0.129257 0.0619434
14177 4 0.989391 0.114787 0.048506
14178 2 0.99125 0.126055 0.075144
14181 2 0.968019 0.11764 0.0452131
14182 4 0.991951 0.0954294 0.0567638
14184 2 0.98683 0.0962645 0.0708922
14190 2 0.93423 0.0958819 0.0534849
9414 4 0.00068336 0.272007 0.0492748
9417 2 0.0136889 0.259651 0.0492472
9423 2 0.0251393 0.265216 0.0816857
15758 2 0.128457 0.18631 0.036109
18277 4 0.124218 0.268639 0.0117418
18280 2 0.140061 0.258422 0.014847
18281 2 0.10436 0.261757 0.0106067
18287 2 0.112162 0.260853 0.0435923
18290 2 0.0657013 0.269425 0.048562
15748 4 0.154364 0.186205 0.00124424
15750 2 0.145304 0.198881 0.00667343
15751 2 0.175153 0.184473 0.00633599
16503 2 0.248034 0.261213 0.00734839
10729 4 0.405566 0.217636 0.0755319
10732 2 0.388677 0.213471 0.0668778
10733 2 0.420213 0.206236 0.0768046
10734 4 0.419803 0.234805 0.0678793
10737 2 0.404466 0.245504 0.0652219
10738 2 0.418958 0.226696 0.0403536
10744 2 0.422755 0.267226 0.0456487
10745 2 0.42246 0.253685 0.0256786
10755 2 0.422622 0.259448 0.003121
16537 4 0.343455 0.232504 0.000731036
16541 2 0.351639 0.226326 0.0128991
16542 4 0.324359 0.248642 0.00537298
16543 4 0.340326 0.263122 0.0160705
16544 2 0.307279 0.243353 0.0132729
16546 2 0.353307 0.255983 0.0257373
16547 2 0.325852 0.272189 0.0229619
10044 2 0.542102 0.182833 0.0722031
10735 4 0.434312 0.229419 0.0505968
10736 2 0.434709 0.239929 0.0775426
10739 2 0.446541 0.216937 0.0529248
10740 4 0.452856 0.245445 0.0447982
10741 4 0.435442 0.260321 0.0356675
10742 2 0.468231 0.240142 0.0355426
10743 2 0.462855 0.251303 0.0565304
10747 4 0.464392 0.266518 0.00904484
10750 2 0.47287 0.252667 0.0113304
18579 4 0.686772 0.186195 0.0715116
18582 2 0.66662 0.190862 0.0759545
18584 4 0.697373 0.199003 0.0567991
18585 4 0.696244 0.219126 0.0633361
18586 2 0.684479 0.197371 0.0450249
18588 2 0.71255 0.221326 0.0730586
18589 2 0.67634 0.221648 0.0695083
18590 4 0.700176 0.232171 0.0474681
18592 2 0.696308 0.246449 0.0517442
18593 2 0.685794 0.228295 0.0369726
18587 2 0.718469 0.195196 0.0536399
18591 4 0.729567 0.230351 0.0406771
18594 2 0.731675 0.217169 0.0335856
18595 2 0.743565 0.230696 0.0520093
18596 4 0.735726 0.246543 0.028107
18597 4 0.765768 0.245574 0.0224558
18598 2 0.731784 0.259615 0.0350527
18599 2 0.722505 0.24546 0.0164285
18600 2 0.768246 0.252905 0.00982604
18601 2 0.771647 0.231009 0.0209056
18602 4 0.783411 0.254756 0.0367886
18603 4 0.813561 0.252898 0.0316035
18604 2 0.779736 0.247813 0.0494954
18605 2 0.777859 0.269433 0.0377846
18606 2 0.819269 0.264661 0.023189
18607 2 0.816424 0.23989 0.0243314
18608 4 0.831011 0.252824 0.0485008
18609 4 0.827608 0.2341 0.0578918
18610 2 0.824188 0.264055 0.0572243
18611 2 0.85244 0.254914 0.0448575
18612 2 0.845075 0.225242 0.0546477
18613 2 0.80867 0.227576 0.0533332
18614 4 0.826342 0.237348 0.0779884
18615 4 0.80016 0.248049 0.0824175
18616 2 0.844231 0.245405 0.0820649
18618 2 0.796989 0.25883 0.0723863
18620 4 0.77599 0.234533 0.082398
18622 2 0.781174 0.222489 0.0742066
18623 2 0.758046 0.241566 0.0769249
9401 2 0.884593 0.260843 0.00980348
9402 4 0.921588 0.271502 0.02184
9404 2 0.929448 0.257283 0.0216262
9409 4 0.976647 0.268876 0.0365829
9412 2 0.983837 0.262209 0.0243861
9413 2 0.961168 0.260191 0.0429845
9418 2 0.977403 0.263488 0.0721364
11865 4 0.890078 0.252278 0.0809375
11867 2 0.931044 0.257994 0.0715473
11868 2 0.881875 0.257684 0.0684423
11870 4 0.891363 0.231043 0.0802405
11872 2 0.906029 0.226867 0.0700201
11873 2 0.871065 0.22564 0.0770047
14153 4 0.942013 0.221073 0.0121815
14156 2 0.920325 0.220663 0.0157039
14157 2 0.952385 0.231874 0.0198627
14158 4 0.955208 0.202176 0.0158573
14159 4 0.947949 0.196063 0.0347707
14160 2 0.977391 0.20347 0.014504
14161 2 0.947415 0.192064 0.00626537
14162 2 0.925694 0.195562 0.0361056
14163 2 0.956463 0.206067 0.044206
9416 2 0.0123839 0.284067 0.0447748
9420 4 0.0136224 0.278201 0.0807743
9422 2 0.0267934 0.289259 0.075673
17766 2 0.0176785 0.32739 0.0742752
17767 2 0.00245458 0.350006 0.0748363
17768 2 0.00429518 0.342029 0.0439826
17773 2 0.0117889 0.307074 0.0531598
17775 2 0.00428613 0.298012 0.0228133
17776 4 0.0180948 0.326462 0.0205122
17777 4 0.0306476 0.320402 0.00279291
17778 2 0.0340575 0.327572 0.0306374
17779 2 0.00777572 0.339836 0.0189271
17780 2 0.0360441 0.305685 0.00358318
17781 2 0.0489649 0.328697 0.000241818
18282 4 0.123127 0.283472 0.026308
18283 4 0.107655 0.275674 0.0423499
18284 2 0.112542 0.295722 0.021159
18286 2 0.114292 0.28301 0.0543259
18288 4 0.0769415 0.278536 0.0395122
18289 4 0.0698152 0.29885 0.0433563
18291 2 0.0718449 0.275135 0.025737
18292 2 0.0487577 0.301485 0.0391633
18293 2 0.0838288 0.307822 0.0359664
18294 4 0.0727166 0.302441 0.0633272
18295 4 0.0565681 0.319936 0.0681894
18296 2 0.0943493 0.304395 0.0665004
18297 2 0.0646428 0.290496 0.0706135
18298 2 0.0540043 0.320476 0.0826215
18299 2 0.0365639 0.319393 0.0617127
18300 4 0.0723913 0.337028 0.0618007
18301 4 0.0554711 0.354453 0.0656847
18302 2 0.0760016 0.335803 0.0475021
18303 2 0.0919058 0.337729 0.0688681
18305 2 0.0434225 0.352159 0.0777329
18306 4 0.036447 0.358213 0.0499269
18308 2 0.0252653 0.345489 0.0467376
18309 2 0.048715 0.362549 0.0385027
13689 2 0.184321 0.356187 0.000373867
16444 2 0.193002 0.302773 0.0765037
16447 4 0.246054 0.289513 0.0776431
16450 2 0.243842 0.295348 0.0642988
16451 2 0.236943 0.275651 0.0781294
16452 4 0.276355 0.288462 0.0826599
16460 2 0.266884 0.317935 0.0585435
16475 2 0.266859 0.354227 0.0452663
16478 2 0.284033 0.356 0.0152751
16482 4 0.228661 0.354752 0.0209245
16483 4 0.240441 0.336667 0.0134435
16484 2 0.207547 0.35652 0.0164453
16485 2 0.2294 0.354504 0.0354518
16486 2 0.257854 0.332401 0.0216003
16488 4 0.218269 0.321661 0.0138902
16490 2 0.19825 0.328252 0.0124129
16491 2 0.21934 0.314337 0.0266065
16494 4 0.251774 0.29966 0.000462344
16496 2 0.254844 0.295306 0.0142458
18274 2 0.161077 0.297356 0.00414485
18285 2 0.144003 0.28714 0.0301604
16453 4 0.288841 0.307918 0.0814026
16454 2 0.286775 0.279067 0.073462
16458 4 0.287957 0.31438 0.0620212
16459 4 0.306349 0.331448 0.0599207
16461 2 0.295275 0.30314 0.0534781
16462 2 0.326289 0.328494 0.065863
16463 2 0.296829 0.343248 0.0666651
16464 4 0.309724 0.335733 0.0401073
16465 4 0.322536 0.355015 0.0380438
16466 2 0.289625 0.335438 0.0337405
16467 2 0.323026 0.325244 0.0341254
16468 2 0.323686 0.358465 0.0239062
16469 2 0.343063 0.35485 0.0438098
16548 4 0.35801 0.274563 0.00333699
16549 4 0.378391 0.286065 0.0141754
16552 2 0.393069 0.292526 0.00511759
16553 2 0.389075 0.276914 0.023469
16554 4 0.36279 0.301068 0.0244316
16555 4 0.382053 0.317387 0.028097
16556 2 0.355497 0.295213 0.0369798
16557 2 0.345439 0.305731 0.0164203
16558 2 0.402632 0.312023 0.0305457
16559 2 0.374747 0.324945 0.0397782
16560 4 0.382284 0.330255 0.0118948
16561 4 0.400642 0.346978 0.0158479
16562 2 0.361407 0.334931 0.00922569
16563 2 0.390208 0.322612 0.00043706
16564 2 0.420804 0.341996 0.0199468
16565 2 0.391437 0.355173 0.0265249
16612 2 0.2958 0.335558 0.00152823
16618 2 0.34005 0.348651 0.00068155
10746 4 0.454372 0.274472 0.0267601
10748 2 0.471785 0.277168 0.0355086
10749 2 0.443008 0.287329 0.0244512
10751 2 0.480158 0.275672 0.00361127
11939 4 0.492902 0.354091 0.015556
11942 2 0.476241 0.344314 0.0130126
11943 2 0.492503 0.358502 0.0294644
11944 4 0.520398 0.344952 0.0112901
11946 2 0.524542 0.334166 0.0211652
11947 2 0.536453 0.355516 0.0117131
11955 2 0.532815 0.303538 3.14299e-05
11956 4 0.564773 0.315596 0.0162335
11958 2 0.558719 0.305044 0.0259204
11959 2 0.557267 0.329223 0.0204092
11192 2 0.648332 0.317234 0.00716247
11198 2 0.698843 0.325677 0.00690407
11199 2 0.680574 0.347225 0.00622696
11957 4 0.595958 0.316024 0.0144813
11960 2 0.60142 0.32327 0.0022081
11961 2 0.603639 0.301765 0.0140867
11962 4 0.608016 0.326261 0.0305053
11963 4 0.601982 0.34704 0.0286806
11964 2 0.630113 0.323953 0.0308399
11965 2 0.598643 0.320869 0.0426529
11966 2 0.579966 0.348984 0.0269364
11967 2 0.612933 0.35246 0.0171159
11968 4 0.611578 0.357026 0.0455313
11969 4 0.642646 0.355018 0.0471476
11970 2 0.601593 0.350739 0.0570634
11972 2 0.652066 0.358734 0.034452
11973 2 0.647552 0.340619 0.0505019
11979 2 0.686613 0.350489 0.0693899
9365 2 0.776983 0.324005 0.0751835
9366 4 0.793175 0.351104 0.0818026
9367 4 0.823237 0.346614 0.0780823
9369 2 0.78368 0.357043 0.0699317
9370 2 0.824535 0.333019 0.0716558
9372 4 0.835103 0.36156 0.0658314
9373 4 0.821089 0.360294 0.0476726
9374 2 0.857086 0.359233 0.0643667
9378 4 0.817789 0.339814 0.0426308
9379 4 0.809008 0.338518 0.023135
9380 2 0.8022 0.333548 0.0511548
9381 2 0.837348 0.332719 0.0445151
9382 2 0.826705 0.341301 0.0146564
9383 2 0.793009 0.348798 0.0206135
9384 4 0.798054 0.318964 0.0194938
9385 4 0.821954 0.305229 0.0196373
9386 2 0.788061 0.318813 0.0064896
9387 2 0.783334 0.315284 0.0298551
9388 2 0.813933 0.291118 0.0183199
9389 2 0.833042 0.306617 0.0321917
9390 4 0.841005 0.309627 0.0040453
9392 2 0.854617 0.321008 0.00783692
9395 2 0.844523 0.280099 0.000267811
11202 4 0.73072 0.358415 0.000791334
11203 4 0.742341 0.346774 0.0160559
11206 2 0.76068 0.339555 0.0114229
11207 2 0.726944 0.336677 0.0202667
11208 4 0.749575 0.359649 0.0315562
11210 2 0.75962 0.351532 0.0419651
9396 4 0.881096 0.290438 0.0130791
9397 4 0.897798 0.273046 0.00869257
9398 2 0.872394 0.289242 0.0264218
9399 2 0.894113 0.30276 0.012277
9403 4 0.944127 0.285088 0.016323
9405 2 0.914224 0.274938 0.0351666
9406 2 0.934814 0.298403 0.0128184
9407 2 0.955028 0.279401 0.00485569
9408 4 0.963921 0.287677 0.0318955
9410 2 0.952635 0.293119 0.0433139
9411 2 0.979924 0.297472 0.0279928
9415 4 0.989571 0.275479 0.0680091
9419 2 0.976806 0.28795 0.0678338
11840 4 0.947833 0.353393 0.0352936
11841 4 0.932497 0.338113 0.0453404
11842 2 0.968437 0.35497 0.040739
11843 2 0.948971 0.349929 0.0211588
11844 2 0.928203 0.342914 0.0588469
11845 2 0.945245 0.325642 0.0457777
11846 4 0.905681 0.333926 0.0356315
11847 4 0.892905 0.316381 0.0435848
11848 2 0.910002 0.331768 0.0215187
11849 2 0.891777 0.345696 0.0372901
11850 2 0.907598 0.304975 0.0426225
11851 2 0.874361 0.312942 0.0361574
11852 4 0.885818 0.320028 0.0630989
11853 4 0.908476 0.312007 0.07486
11854 2 0.86633 0.313316 0.0661931
11855 2 0.884177 0.335014 0.0652176
11857 2 0.927525 0.319461 0.072198
11858 4 0.912023 0.291366 0.0705435
11860 2 0.929435 0.289703 0.0615617
11861 2 0.89339 0.286249 0.0641699
17762 2 0.958568 0.337408 0.0830638
17763 2 0.969653 0.314147 0.078672
17764 4 0.999075 0.335363 0.0716587
17765 4 0.990872 0.333345 0.0521129
17769 2 0.969637 0.337809 0.0505289
17770 4 0.993797 0.312965 0.0466224
17771 4 0.997153 0.311907 0.0264129
17772 2 0.975448 0.305394 0.0506901
17774 2 0.977403 0.314669 0.0201282
9855 4 0.128091 0.394671 0.00222599
9858 2 0.117474 0.408037 0.00200671
9860 4 0.133722 0.388839 0.0214523
9861 4 0.135443 0.406245 0.03309
9863 2 0.117058 0.379918 0.0260454
9864 2 0.114839 0.411764 0.0350936
9867 4 0.125202 0.39712 0.0643556
9870 2 0.133415 0.388851 0.075318
9871 2 0.108876 0.389456 0.057655
9872 4 0.114162 0.4156 0.0714178
9873 4 0.137302 0.42602 0.0808235
9874 2 0.0975615 0.412808 0.0807842
9875 2 0.106532 0.423843 0.0602599
11811 4 0.0285993 0.454034 0.00693641
11815 2 0.0420674 0.441909 0.0070453
18304 2 0.0693039 0.366218 0.0676015
18307 4 0.0163455 0.373632 0.0549953
18310 2 0.00594106 0.369771 0.0673212
18311 2 0.00140414 0.375304 0.0442983
18312 4 0.0321966 0.391756 0.0576653
18313 4 0.0118311 0.407742 0.059868
18314 2 0.0451228 0.394213 0.046038
18315 2 0.0448757 0.390526 0.069582
18316 2 0.0229586 0.420276 0.0637537
18321 2 0.0111162 0.407708 0.0312679
18323 2 0.00586114 0.440194 0.0440593
5338 1 0.21278 0.426459 0.00580182
5340 1 0.237718 0.416684 0.00580838
5361 1 0.202647 0.433336 0.0217485
5362 1 0.212767 0.426465 0.0377
5363 1 0.251542 0.414173 0.0217595
5364 1 0.237708 0.416694 0.0377055
5366 1 0.280335 0.414175 0.0217652
5381 1 0.188246 0.450271 0.0217443
5385 1 0.202632 0.433339 0.0536472
5386 1 0.212756 0.426467 0.0695979
5387 1 0.251535 0.414182 0.0536554
5388 1 0.237699 0.416698 0.0696021
5390 1 0.280328 0.41418 0.0536603
5405 1 0.188223 0.450272 0.0536435
9862 2 0.153083 0.381257 0.0219593
9865 2 0.148185 0.416587 0.0264014
9866 4 0.148132 0.401039 0.0510161
9868 2 0.160711 0.412603 0.0557025
9869 2 0.160783 0.388642 0.0493073
9876 2 0.150385 0.432556 0.0708302
16471 4 0.27526 0.367585 0.0410184
16474 2 0.263114 0.378933 0.0465892
16476 4 0.275268 0.368774 0.0206981
16477 4 0.245806 0.37109 0.0141809
16481 2 0.237586 0.384141 0.0193528
5343 1 0.294172 0.416687 0.00581985
5346 1 0.319111 0.426461 0.00582407
5365 1 0.329236 0.433336 0.0217717
5367 1 0.294162 0.416693 0.037714
5368 1 0.34364 0.45027 0.0217737
5370 1 0.319104 0.426463 0.0377179
5389 1 0.329234 0.433336 0.0536654
5391 1 0.294159 0.416693 0.0696088
5392 1 0.343641 0.45027 0.0536673
5394 1 0.319104 0.426461 0.0696124
11930 2 0.414129 0.400939 0.000525045
16470 4 0.304703 0.369251 0.047749
16472 2 0.312563 0.383189 0.04505
16473 2 0.305435 0.366434 0.0620261
16479 2 0.287552 0.380722 0.0166001
16568 2 0.414932 0.371342 0.0021314
16619 2 0.324821 0.371271 0.000966132
16690 2 0.333436 0.409075 0.00203803
16692 4 0.371607 0.404477 0.0159008
16693 3 0.356634 0.39017 0.027389
16694 2 0.373475 0.417601 0.0231178
16695 2 0.3919 0.399275 0.0123616
16696 2 0.354755 0.377192 0.0199348
16697 2 0.33633 0.395518 0.030691
16698 2 0.366772 0.388139 0.037897
11265 2 0.56209 0.450353 0.00956525
11927 4 0.433044 0.408482 0.00335642
11931 2 0.434903 0.410901 0.0176571
11933 4 0.465134 0.382655 0.0105595
11936 2 0.447439 0.373672 0.0128171
11937 2 0.470856 0.38961 0.0229364
11938 4 0.489203 0.371141 0.00363306
11940 2 0.507704 0.379667 0.00391339
11221 4 0.685053 0.38972 0.021604
11224 2 0.678514 0.399055 0.0322547
11225 2 0.68103 0.375305 0.0253672
11226 4 0.669814 0.394421 0.00440417
11227 4 0.639281 0.390614 0.00704279
11229 2 0.673029 0.409092 0.00127318
11230 2 0.632518 0.397314 0.0193263
11231 2 0.636049 0.375612 0.00791833
11236 2 0.587652 0.39351 0.00711931
11262 4 0.58425 0.451446 0.0112144
11264 2 0.593745 0.437848 0.00925115
11268 4 0.613842 0.446937 0.0378493
11269 4 0.602611 0.427566 0.0419963
11270 2 0.621065 0.453546 0.0500668
11271 2 0.630602 0.445902 0.028276
11272 2 0.593983 0.421608 0.0298573
11273 2 0.586729 0.428762 0.0521658
11274 4 0.625956 0.415312 0.0488043
11275 3 0.629073 0.418205 0.068865
11276 2 0.644868 0.419235 0.0420149
11277 2 0.621105 0.400774 0.0460139
11278 2 0.609942 0.41436 0.0754308
11279 2 0.633704 0.432821 0.0714318
11280 2 0.643475 0.410646 0.0730647
11971 2 0.606066 0.371715 0.0446004
11974 4 0.652933 0.368012 0.0618043
11975 4 0.68355 0.364687 0.0646238
11976 2 0.641767 0.365067 0.07408
11977 2 0.649408 0.382397 0.0577396
11978 2 0.694212 0.366658 0.0519857
11980 4 0.694235 0.378556 0.0783986
11983 2 0.69256 0.392606 0.0729826
6286 1 0.738311 0.450271 0.0133283
6288 1 0.752719 0.433338 0.0133294
6291 1 0.801609 0.414169 0.0133335
6294 1 0.830401 0.414166 0.0133371
6310 1 0.738303 0.450271 0.0452247
6311 1 0.762839 0.426463 0.0292783
6312 1 0.752703 0.433335 0.0452259
6313 1 0.844222 0.416684 0.029289
6314 1 0.787774 0.416685 0.0292811
6315 1 0.801593 0.414166 0.0452324
6318 1 0.830385 0.41417 0.0452369
6334 1 0.738295 0.45027 0.0771214
6335 1 0.762816 0.426456 0.0611755
6336 1 0.752682 0.433329 0.0771234
6337 1 0.844201 0.416692 0.0611893
6338 1 0.787753 0.416679 0.0611792
6339 1 0.801571 0.414163 0.0771313
6342 1 0.830363 0.414174 0.0771362
9375 2 0.831408 0.375219 0.0717202
9376 2 0.833734 0.367388 0.0377906
9377 2 0.801023 0.366945 0.0484873
11204 2 0.716796 0.368965 0.00603091
11209 4 0.768865 0.374872 0.02487
11211 2 0.730799 0.365875 0.0367369
11212 2 0.766844 0.37604 0.0104356
11213 2 0.78988 0.37116 0.0283441
11214 4 0.761113 0.393301 0.0336843
11215 4 0.730132 0.393765 0.0365815
11216 2 0.767267 0.404738 0.0249947
11217 2 0.77168 0.394391 0.0464536
11218 2 0.724616 0.406878 0.0429812
11219 2 0.724278 0.382101 0.0450802
11220 4 0.715792 0.392188 0.0185531
11222 2 0.723974 0.380175 0.0114221
11223 2 0.719562 0.404864 0.0109276
11981 4 0.724189 0.374087 0.0824906
11984 2 0.735235 0.372207 0.0699794
6293 1 0.879287 0.433336 0.0133425
6296 1 0.893685 0.450271 0.0133443
6316 1 0.869157 0.426463 0.0292925
6317 1 0.879273 0.433339 0.0452441
6320 1 0.89368 0.450272 0.045246
6340 1 0.869137 0.426469 0.0611932
6341 1 0.879254 0.433342 0.0771451
6344 1 0.893667 0.450272 0.0771478
11820 2 0.991959 0.429701 0.0111077
11828 4 0.94059 0.419391 0.0168001
11829 4 0.924231 0.402804 0.0238082
11830 2 0.928669 0.432146 0.0182968
11831 2 0.959875 0.420608 0.0240662
11832 2 0.906266 0.40075 0.0153781
11833 2 0.917847 0.40567 0.0374676
11834 4 0.942345 0.385467 0.0233319
11835 4 0.93237 0.371744 0.0374623
11836 2 0.96348 0.389506 0.0260899
11837 2 0.94097 0.379135 0.0101485
11838 2 0.910434 0.369447 0.0356919
11839 2 0.936304 0.377575 0.0506398
17715 2 0.993515 0.418906 0.0798533
17721 2 0.964108 0.391736 0.0737664
17723 4 0.910566 0.390837 0.0802872
17726 2 0.91991 0.39671 0.0683357
17728 4 0.888688 0.376623 0.0751024
17730 2 0.898561 0.364791 0.0686304
17731 2 0.874201 0.383154 0.0659608
18317 2 0.997001 0.404056 0.0701608
18318 4 0.997123 0.410969 0.0421692
18319 4 0.988293 0.431337 0.0410527
18320 2 0.979176 0.401933 0.0415207
18322 2 0.980884 0.434214 0.0276157
18324 4 0.965444 0.434804 0.0545648
18325 4 0.950496 0.452766 0.049642
18326 2 0.974437 0.43609 0.0678177
18327 2 0.951188 0.423106 0.0542549
18329 2 0.941018 0.451072 0.0365754
6920 2 0.137354 0.471102 0.00287324
11667 4 0.0798598 0.523333 0.00553327
11670 2 0.0720824 0.515016 0.0165966
11671 2 0.0640031 0.532877 0.000880403
11672 4 0.105096 0.534291 0.0114571
11673 4 0.1284 0.520679 0.0153278
11674 2 0.10007 0.542141 0.0234658
11675 2 0.111082 0.543807 0.000816216
11676 2 0.137523 0.516254 0.00274906