LAMMPS data file. msi2lmp v3.9.9 / 05 Nov 2018 / CGCMM for laba1

  13052 atoms
  12971 bonds
  25138 angles
  36471 dihedrals
    684 impropers

   5 atom types
   7 bond types
  13 angle types
  16 dihedral types
   9 improper types

     0.500315372    60.500315372 xlo xhi
     0.305577545    45.305577545 ylo yhi
     1.063233480    51.063233480 zlo zhi

Masses

   1  12.011150 # cp
   2  12.011150 # c
   3  12.011150 # c2
   4  12.011150 # c3
   5   1.007970 # h

Pair Coeffs # lj/cut/coul/long

   1   0.1479999981   3.6170487995 # cp
   2   0.1599999990   3.4745050026 # c
   3   0.0389999952   3.8754094636 # c2
   4   0.0389999952   3.8754094636 # c3
   5   0.0380000011   2.4499714540 # h

Bond Coeffs # harmonic

   1   480.0000     1.3400 # cp-cp
   2   283.0924     1.5100 # cp-c
   3   322.7158     1.5260 # c-c
   4   322.7158     1.5260 # c2-c3
   5   340.6175     1.1050 # c2-h
   6   322.7158     1.5260 # c2-c2
   7   340.6175     1.1050 # c3-h

Angle Coeffs # harmonic

   1    90.0000   120.0000 # cp-cp-cp
   2    44.2000   120.0000 # cp-cp-c
   3    46.6000   110.5000 # cp-c-c
   4    46.6000   110.5000 # cp-c-cp
   5    46.6000   110.5000 # c-c-c
   6     0.0000     0.0000 # c-cp-c
   7    44.4000   110.0000 # c3-c2-h
   8    46.6000   110.5000 # c2-c2-c3
   9    39.5000   106.4000 # h-c2-h
  10    44.4000   110.0000 # c2-c2-h
  11    44.4000   110.0000 # c2-c3-h
  12    39.5000   106.4000 # h-c3-h
  13    46.6000   110.5000 # c2-c2-c2

Dihedral Coeffs # harmonic

  1    12.0000  -1   2 # cp-cp-cp-cp
  2    12.0000  -1   2 # cp-cp-cp-c
  3    12.0000  -1   2 # c-cp-cp-c
  4     0.6750   1   4 # cp-cp-c-cp
  5     0.0000   1   2 # cp-cp-c-c
  6     0.1581   1   3 # cp-c-c-cp
  7     0.1581   1   3 # cp-c-c-c
  8     0.0000   1   2 # c-cp-c-cp
  9     0.0000   1   2 # c-cp-c-c
 10     0.1581   1   3 # h-c2-c3-h
 11     0.1581   1   3 # c2-c2-c3-h
 12     0.1581   1   3 # c2-c2-c2-c3
 13     0.1581   1   3 # c3-c2-c2-h
 14     0.1581   1   3 # c2-c2-c2-h
 15     0.1581   1   3 # h-c2-c2-h
 16     0.1581   1   3 # c2-c2-c2-c2

Improper Coeffs # cvff

    1     0.3700  -1   2 # cp-cp-cp-c
    2     0.3700  -1   2 # cp-cp-cp-cp
    3     0.0000   0   0 # cp-cp-c-c
    4     0.0000   0   0 # c2-c2-h-h
    5     0.0000   0   0 # c2-c3-h-h
    6     0.0000   0   0 # c2-c2-c2-h
    7     0.0000   0   0 # h-c3-h-h
    8     0.0000   0   0 # c2-c2-c3-h
    9     0.0000   0   0 # c3-c2-h-h

Atoms # full

      1      1   1  0.000000    50.442390685    18.701442684    26.378480707   0   0   0 # cp
      2      1   1  0.000000    50.442558113    19.407148000    27.599724858   0   0   0 # cp
      3      1   1  0.000000    50.442842950    21.794948202    28.977024037   0   0   0 # cp
      4      1   1  0.000000    50.442568034    25.593063349    27.599446849   0   0   0 # cp
      5      1   1  0.000000    50.442833570    23.205394338    28.976972707   0   0   0 # cp
      6      1   1  0.000000    50.442380674    26.298684270    26.378153984   0   0   0 # cp
      7      1   1  0.000000    50.442390404    26.298558409    23.621522295   0   0   0 # cp
      8      1   1  0.000000    50.442844104    23.205052932    21.022978849   0   0   0 # cp
      9      1   1  0.000000    50.442558626    25.592852973    22.400277970   0   0   0 # cp
     10      1   1  0.000000    50.442834401    21.794606595    21.023030206   0   0   0 # cp
     11      1   1  0.000000    50.442569469    19.406937663    22.400556061   0   0   0 # cp
     12      1   1  0.000000    50.442380992    18.701316756    23.621848921   0   0   0 # cp
     13      1   1  0.000000    49.238730616    18.489545885    25.707266289   0   0   0 # cp
     14      1   1  0.000000    48.033443981    18.673210225    26.390713862   0   0   0 # cp
     15      1   1  0.000000    49.238987620    19.882799554    28.118840996   0   0   0 # cp
     16      1   1  0.000000    48.033554557    19.382552392    27.618605324   0   0   0 # cp
     17      1   1  0.000000    49.239125464    23.892747911    28.825256004   0   0   0 # cp
     18      1   1  0.000000    49.239112852    21.107663071    28.825403414   0   0   0 # cp
     19      1   2  0.000000    48.033765662    21.791248192    29.008412043   0   0   0 # c
     20      1   1  0.000000    49.238975051    25.117528453    28.118550135   0   0   0 # cp
     21      1   1  0.000000    48.033565351    25.617780136    27.618195282   0   0   0 # cp
     22      1   2  0.000000    48.033755005    23.209268586    29.008321282   0   0   0 # c
     23      1   1  0.000000    49.238743171    26.510535010    25.706832768   0   0   0 # cp
     24      1   1  0.000000    48.033432690    26.326969948    26.390215898   0   0   0 # cp
     25      1   1  0.000000    49.238988123    25.117201470    21.881161631   0   0   0 # cp
     26      1   1  0.000000    49.238730839    26.510455029    24.292736197   0   0   0 # cp
     27      1   1  0.000000    48.033443514    26.326790611    23.609288453   0   0   0 # cp
     28      1   1  0.000000    49.239113625    23.892337738    21.174599061   0   0   0 # cp
     29      1   2  0.000000    48.033766959    23.208752715    20.991590146   0   0   0 # c
     30      1   1  0.000000    48.033555173    25.617448339    22.381396789   0   0   0 # cp
     31      1   1  0.000000    49.239127113    21.107253048    21.174746492   0   0   0 # cp
     32      1   2  0.000000    48.033755687    21.790732088    20.991680911   0   0   0 # c
     33      1   1  0.000000    49.238744316    18.489465868    24.293169850   0   0   0 # cp
     34      1   1  0.000000    49.238975601    19.882472400    21.881452436   0   0   0 # cp
     35      1   1  0.000000    48.033567116    19.382220626    22.381806911   0   0   0 # cp
     36      1   1  0.000000    48.033432757    18.673030825    23.609786304   0   0   0 # cp
     37      1   1  0.000000    46.827105558    18.494668315    25.708615803   0   0   0 # cp
     38      1   1  0.000000    45.620994885    18.678336647    26.388926408   0   0   0 # cp
     39      1   1  0.000000    46.827282748    19.884236482    28.114292170   0   0   0 # cp
     40      1   1  0.000000    45.621065933    19.386781883    27.615464799   0   0   0 # cp
     41      1   1  0.000000    46.827382738    23.889356336    28.822087839   0   0   0 # cp
     42      1   1  0.000000    46.827371771    21.111216354    28.822299201   0   0   0 # cp
     43      1   2  0.000000    45.621215052    21.792133530    29.003602905   0   0   0 # c
     44      1   1  0.000000    46.827271555    25.116227341    28.113892408   0   0   0 # cp
     45      1   1  0.000000    45.621076586    25.613661355    27.614925786   0   0   0 # cp
     46      1   2  0.000000    45.621204491    23.208549910    29.003480382   0   0   0 # c
     47      1   1  0.000000    46.827116629    26.505438404    25.708009737   0   0   0 # cp
     48      1   1  0.000000    45.620983651    26.321899445    26.388267827   0   0   0 # cp
     49      1   1  0.000000    46.827283207    25.115764296    21.885709758   0   0   0 # cp
     50      1   1  0.000000    46.827105979    26.505332344    24.291385989   0   0   0 # cp
     51      1   1  0.000000    45.620994232    26.321663931    23.611075193   0   0   0 # cp
     52      1   1  0.000000    46.827372504    23.888784196    21.177702585   0   0   0 # cp
     53      1   2  0.000000    45.621216464    23.207867121    20.996398587   0   0   0 # c
     54      1   1  0.000000    45.621066650    25.613218597    22.384536609   0   0   0 # cp
     55      1   1  0.000000    46.827384632    21.110644378    21.177913965   0   0   0 # cp
     56      1   2  0.000000    45.621205017    21.791450516    20.996521114   0   0   0 # c
     57      1   1  0.000000    46.827118061    18.494562233    24.291992183   0   0   0 # cp
     58      1   1  0.000000    46.827271866    19.883773260    21.886109475   0   0   0 # cp
     59      1   1  0.000000    45.621078653    19.386339164    22.385075698   0   0   0 # cp
     60      1   1  0.000000    45.620983466    18.678101084    23.611733671   0   0   0 # cp
     61      1   1  0.000000    44.414599729    18.495930704    25.708588127   0   0   0 # cp
     62      1   1  0.000000    43.208281727    18.678309005    26.389144498   0   0   0 # cp
     63      1   1  0.000000    44.414722196    19.884965540    28.113605147   0   0   0 # cp
     64      1   1  0.000000    43.208326887    19.386686509    27.615677278   0   0   0 # cp
     65      1   1  0.000000    44.414791411    23.889012804    28.821321339   0   0   0 # cp
     66      1   1  0.000000    44.414781152    21.111716220    28.821590866   0   0   0 # cp
     67      1   2  0.000000    43.208429444    21.792228870    29.004053996   0   0   0 # c
     68      1   1  0.000000    44.414711784    25.115626757    28.113098969   0   0   0 # cp
     69      1   1  0.000000    43.208336988    25.613862237    27.615014755   0   0   0 # cp
     70      1   2  0.000000    43.208419577    23.208614559    29.003902448   0   0   0 # c
     71      1   1  0.000000    44.414610124    26.504203759    25.707817459   0   0   0 # cp
     72      1   1  0.000000    43.208271163    26.321981881    26.388333123   0   0   0 # cp
     73      1   1  0.000000    44.414722611    25.115034969    21.886396055   0   0   0 # cp
     74      1   1  0.000000    44.414600342    26.504069699    24.291412958   0   0   0 # cp
     75      1   1  0.000000    43.208280907    26.321691307    23.610856359   0   0   0 # cp
     76      1   1  0.000000    44.414781858    23.888284087    21.178410213   0   0   0 # cp
     77      1   2  0.000000    43.208430946    23.207771502    20.995946773   0   0   0 # c
     78      1   1  0.000000    43.208327694    25.613313724    22.384323420   0   0   0 # cp
     79      1   1  0.000000    44.414793527    21.110987652    21.178679754   0   0   0 # cp
     80      1   2  0.000000    43.208419976    21.791385625    20.996098322   0   0   0 # c
     81      1   1  0.000000    44.414611820    18.495796628    24.292183734   0   0   0 # cp
     82      1   1  0.000000    44.414711875    19.884373594    21.886902196   0   0   0 # cp
     83      1   1  0.000000    43.208339311    19.386138028    22.384986004   0   0   0 # cp
     84      1   1  0.000000    43.208270759    18.678018389    23.611667653   0   0   0 # cp
     85      1   1  0.000000    42.001924066    18.495943827    25.708669902   0   0   0 # cp
     86      1   1  0.000000    40.795596688    18.678448937    26.389199404   0   0   0 # cp
     87      1   1  0.000000    42.002008609    19.884985336    28.113832507   0   0   0 # cp
     88      1   1  0.000000    40.795624089    19.386806361    27.615754358   0   0   0 # cp
     89      1   1  0.000000    42.002055382    23.889152719    28.821544277   0   0   0 # cp
     90      1   1  0.000000    42.002045683    21.111725206    28.821867500   0   0   0 # cp
     91      1   2  0.000000    40.795695800    21.792297057    29.004164156   0   0   0 # c
     92      1   1  0.000000    42.001999000    25.115728875    28.113225824   0   0   0 # cp
     93      1   1  0.000000    40.795633749    25.613841780    27.614975294   0   0   0 # cp
     94      1   2  0.000000    40.795686606    23.208697957    29.003986514   0   0   0 # c
     95      1   1  0.000000    42.001933876    26.504217908    25.707743941   0   0   0 # cp
     96      1   1  0.000000    40.795586812    26.321894974    26.388244697   0   0   0 # cp
     97      1   1  0.000000    42.002008979    25.115014889    21.886167947   0   0   0 # cp
     98      1   1  0.000000    42.001924842    26.504056317    24.291330464   0   0   0 # cp
     99      1   1  0.000000    40.795595733    26.321551101    23.610800688   0   0   0 # cp
    100      1   1  0.000000    42.002046376    23.888274864    21.178132860   0   0   0 # cp
    101      1   2  0.000000    40.795697364    23.207703025    20.995835874   0   0   0 # c
    102      1   1  0.000000    40.795624974    25.613193624    22.384245625   0   0   0 # cp
    103      1   1  0.000000    42.002057674    21.110847467    21.178456093   0   0   0 # cp
    104      1   2  0.000000    40.795686917    21.791301991    20.996013517   0   0   0 # c
    105      1   1  0.000000    42.001935794    18.495782222    24.292256504   0   0   0 # cp
    106      1   1  0.000000    42.001998916    19.884271223    21.886774603   0   0   0 # cp
    107      1   1  0.000000    40.795636268    19.386158226    22.385024725   0   0   0 # cp
    108      1   1  0.000000    40.795586239    18.678105032    23.611755343   0   0   0 # cp
    109      1   1  0.000000    39.589227304    18.496087656    25.708737339   0   0   0 # cp
    110      1   1  0.000000    38.382887226    18.678565570    26.389256300   0   0   0 # cp
    111      1   1  0.000000    39.589288324    19.885085371    28.113890060   0   0   0 # cp
    112      1   1  0.000000    38.382902969    19.386905398    27.615814915   0   0   0 # cp
    113      1   1  0.000000    39.589319807    23.889209485    28.821570939   0   0   0 # cp
    114      1   1  0.000000    39.589310562    21.111808823    28.821943933   0   0   0 # cp
    115      1   2  0.000000    38.382955689    21.792368552    29.004238963   0   0   0 # c
    116      1   1  0.000000    39.589279404    25.115743379    28.113188820   0   0   0 # cp
    117      1   1  0.000000    38.382912164    25.613836063    27.614927216   0   0   0 # cp
    118      1   2  0.000000    38.382947075    23.208768396    29.004036548   0   0   0 # c
    119      1   1  0.000000    39.589236628    26.504100280    25.707665890   0   0   0 # cp
    120      1   1  0.000000    38.382877933    26.321827615    26.388167571   0   0   0 # cp
    121      1   1  0.000000    39.589288658    25.114914557    21.886109629   0   0   0 # cp
    122      1   1  0.000000    39.589228197    26.503912224    24.291262302   0   0   0 # cp
    123      1   1  0.000000    38.382886185    26.321434188    23.610743010   0   0   0 # cp
    124      1   1  0.000000    39.589311255    23.888191014    21.178055699   0   0   0 # cp
    125      1   2  0.000000    38.382957284    23.207631228    20.995760318   0   0   0 # c
    126      1   1  0.000000    38.382903908    25.613094339    22.384184347   0   0   0 # cp
    127      1   1  0.000000    39.589322215    21.110790422    21.178428696   0   0   0 # cp
    128      1   2  0.000000    38.382947348    21.791231317    20.995962732   0   0   0 # c
    129      1   1  0.000000    39.589238703    18.495899591    24.292333792   0   0   0 # cp
    130      1   1  0.000000    39.589279205    19.884256468    21.886810854   0   0   0 # cp
    131      1   1  0.000000    38.382914800    19.386163680    22.385072056   0   0   0 # cp
    132      1   1  0.000000    38.382877261    18.678172123    23.611831722   0   0   0 # cp
    133      1   1  0.000000    37.176514184    18.496170955    25.708802804   0   0   0 # cp
    134      1   1  0.000000    35.970170226    18.678643740    26.389318816   0   0   0 # cp
    135      1   1  0.000000    37.176560136    19.885155105    28.113967656   0   0   0 # cp
    136      1   1  0.000000    35.970177778    19.386975561    27.615881837   0   0   0 # cp
    137      1   1  0.000000    37.176581142    23.889276551    28.821613353   0   0   0 # cp
    138      1   1  0.000000    37.176572490    21.111872006    28.822033180   0   0   0 # cp
    139      1   2  0.000000    35.970216637    21.792432440    29.004316907   0   0   0 # c
    140      1   1  0.000000    37.176551783    25.115780399    28.113178974   0   0   0 # cp
    141      1   1  0.000000    35.970186176    25.613851153    27.614894172   0   0   0 # cp
    142      1   2  0.000000    35.970208653    23.208834778    29.004091952   0   0   0 # c
    143      1   1  0.000000    37.176522928    26.504040634    25.707596201   0   0   0 # cp
    144      1   1  0.000000    35.970161505    26.321794671    26.388107086   0   0   0 # cp
    145      1   1  0.000000    37.176560450    25.114844520    21.886031255   0   0   0 # cp
    146      1   1  0.000000    37.176515136    26.503828658    24.291196106   0   0   0 # cp
    147      1   1  0.000000    35.970169159    26.321355733    23.610679701   0   0   0 # cp
    148      1   1  0.000000    37.176573199    23.888127600    21.177965717   0   0   0 # cp
    149      1   2  0.000000    35.970218236    23.207567031    20.995681614   0   0   0 # c
    150      1   1  0.000000    35.970178744    25.613023928    22.384116702   0   0   0 # cp
    151      1   1  0.000000    37.176583600    21.110723068    21.178385541   0   0   0 # cp
    152      1   2  0.000000    35.970208941    21.791164704    20.995906569   0   0   0 # c
    153      1   1  0.000000    37.176525081    18.495958973    24.292402706   0   0   0 # cp
    154      1   1  0.000000    37.176551543    19.884219196    21.886819935   0   0   0 # cp
    155      1   1  0.000000    35.970188840    19.386148323    22.385104348   0   0   0 # cp
    156      1   1  0.000000    35.970160818    18.678204798    23.611891449   0   0   0 # cp
    157      1   1  0.000000    34.763797361    18.496240616    25.708863560   0   0   0 # cp
    158      1   1  0.000000    33.557450582    18.678706089    26.389376520   0   0   0 # cp
    159      1   1  0.000000    34.763830106    19.885216451    28.114034263   0   0   0 # cp
    160      1   1  0.000000    33.557451166    19.387032491    27.615942157   0   0   0 # cp
    161      1   1  0.000000    34.763842568    23.889334425    28.821644570   0   0   0 # cp
    162      1   1  0.000000    34.763834816    21.111932165    28.822106152   0   0   0 # cp
    163      1   2  0.000000    33.557476123    21.792489958    29.004381429   0   0   0 # c
    164      1   1  0.000000    34.763822288    25.115815034    28.113165686   0   0   0 # cp
    165      1   1  0.000000    33.557458512    25.613870358    27.614864173   0   0   0 # cp
    166      1   2  0.000000    33.557468892    23.208893944    29.004136363   0   0   0 # c
    167      1   1  0.000000    34.763805295    26.503993066    25.707534497   0   0   0 # cp
    168      1   1  0.000000    33.557442551    26.321772992    26.388054043   0   0   0 # cp
    169      1   1  0.000000    34.763830418    25.114782865    21.885963862   0   0   0 # cp
    170      1   1  0.000000    34.763798301    26.503758726    24.291134615   0   0   0 # cp
    171      1   1  0.000000    33.557449557    26.321293097    23.610621199   0   0   0 # cp
    172      1   1  0.000000    34.763835555    23.888067212    21.177892005   0   0   0 # cp
    173      1   2  0.000000    33.557477697    23.207509200    20.995616328   0   0   0 # c
    174      1   1  0.000000    33.557452125    25.612966748    22.384055655   0   0   0 # cp
    175      1   1  0.000000    34.763845009    21.110664902    21.178353579   0   0   0 # cp
    176      1   2  0.000000    33.557469248    21.791105307    20.995861392   0   0   0 # c
    177      1   1  0.000000    34.763807433    18.496006276    24.292463630   0   0   0 # cp
    178      1   1  0.000000    34.763822090    19.884184312    21.886832450   0   0   0 # cp
    179      1   1  0.000000    33.557461110    19.386128848    22.385133592   0   0   0 # cp
    180      1   1  0.000000    33.557441942    18.678226205    23.611943730   0   0   0 # cp
    181      1   1  0.000000    32.351077774    18.496310037    25.708917297   0   0   0 # cp
    182      1   1  0.000000    31.144724345    18.678757269    26.389418580   0   0   0 # cp
    183      1   1  0.000000    32.351096134    19.885278254    28.114071627   0   0   0 # cp
    184      1   1  0.000000    31.144718895    19.387087996    27.615982777   0   0   0 # cp
    185      1   1  0.000000    32.351100728    23.889377200    28.821645102   0   0   0 # cp
    186      1   1  0.000000    32.351094002    21.111994191    28.822144616   0   0   0 # cp
    187      1   1  0.000000    31.144728881    21.792539784    29.004407748   0   0   0 # cp
    188      1   1  0.000000    32.351089045    25.115838688    28.113131608   0   0   0 # cp
    189      1   1  0.000000    31.144725156    25.613882326    27.614824901   0   0   0 # cp
    190      1   1  0.000000    31.144722610    23.208946903    29.004144361   0   0   0 # cp
    191      1   1  0.000000    32.351084718    26.503942807    25.707478396   0   0   0 # cp
    192      1   1  0.000000    31.144717315    26.321757197    26.387997697   0   0   0 # cp
    193      1   1  0.000000    32.351096467    25.114720752    21.885925709   0   0   0 # cp
    194      1   1  0.000000    32.351078626    26.503689034    24.291080137   0   0   0 # cp
    195      1   1  0.000000    31.144723431    26.321241630    23.610578341   0   0   0 # cp
    196      1   1  0.000000    32.351094783    23.888004954    21.177852798   0   0   0 # cp
    197      1   1  0.000000    31.144730406    23.207459062    20.995589243   0   0   0 # cp
    198      1   1  0.000000    31.144719811    25.612910992    22.384014303   0   0   0 # cp
    199      1   1  0.000000    32.351103084    21.110621833    21.178352298   0   0   0 # cp
    200      1   1  0.000000    31.144723089    21.791052115    20.995852627   0   0   0 # cp
    201      1   1  0.000000    32.351086744    18.496056268    24.292518949   0   0   0 # cp
    202      1   1  0.000000    32.351088975    19.884160406    21.886865752   0   0   0 # cp
    203      1   1  0.000000    31.144727594    19.386116608    22.385172106   0   0   0 # cp
    204      1   1  0.000000    31.144716878    18.678241729    23.611999310   0   0   0 # cp
    205      1   1  0.000000    22.345312799    22.500000000    40.623091428   0   0   0 # cp
    206      1   1  0.000000    22.345312799    22.500000000    39.202810389   0   0   0 # cp
    207      1   1  0.000000    24.805311719    22.500000000    40.623091428   0   0   0 # cp
    208      1   1  0.000000    23.575312259    22.500000000    41.333231947   0   0   0 # cp
    209      1   1  0.000000    24.805311719    22.500000000    39.202810389   0   0   0 # cp
    210      1   1  0.000000    27.265310639    22.500000000    40.623091428   0   0   0 # cp
    211      1   1  0.000000    26.035311179    22.500000000    41.333231947   0   0   0 # cp
    212      1   1  0.000000    27.265310639    22.500000000    39.202810389   0   0   0 # cp
    213      1   1  0.000000    29.725309560    22.500000000    40.623091428   0   0   0 # cp
    214      1   1  0.000000    28.495310100    22.500000000    41.333231947   0   0   0 # cp
    215      1   1  0.000000    29.725309560    22.500000000    39.202810389   0   0   0 # cp
    216      1   1  0.000000    32.185308480    22.500000000    40.623091428   0   0   0 # cp
    217      1   1  0.000000    30.955309020    22.500000000    41.333231947   0   0   0 # cp
    218      1   1  0.000000    32.185308480    22.500000000    39.202810389   0   0   0 # cp
    219      1   1  0.000000    34.645307400    22.500000000    40.623091428   0   0   0 # cp
    220      1   1  0.000000    33.415307940    22.500000000    41.333231947   0   0   0 # cp
    221      1   1  0.000000    34.645307400    22.500000000    39.202810389   0   0   0 # cp
    222      1   1  0.000000    37.105306321    22.500000000    40.623091428   0   0   0 # cp
    223      1   1  0.000000    35.875306861    22.500000000    41.333231947   0   0   0 # cp
    224      1   1  0.000000    37.105306321    22.500000000    39.202810389   0   0   0 # cp
    225      1   1  0.000000    39.565305241    22.500000000    40.623091428   0   0   0 # cp
    226      1   1  0.000000    38.335305781    22.500000000    41.333231947   0   0   0 # cp
    227      1   1  0.000000    39.565305241    22.500000000    39.202810389   0   0   0 # cp
    228      1   1  0.000000    42.025304162    22.500000000    40.623091428   0   0   0 # cp
    229      1   1  0.000000    40.795304701    22.500000000    41.333231947   0   0   0 # cp
    230      1   1  0.000000    42.025304162    22.500000000    39.202810389   0   0   0 # cp
    231      1   1  0.000000    22.345312799    22.500000000    36.362248311   0   0   0 # cp
    232      1   1  0.000000    22.345312799    22.500000000    34.941967272   0   0   0 # cp
    233      1   1  0.000000    23.575312259    22.500000000    38.492669869   0   0   0 # cp
    234      1   1  0.000000    24.805311719    22.500000000    36.362248311   0   0   0 # cp
    235      1   1  0.000000    23.575312259    22.500000000    37.072388830   0   0   0 # cp
    236      1   1  0.000000    24.805311719    22.500000000    34.941967272   0   0   0 # cp
    237      1   1  0.000000    26.035311179    22.500000000    38.492669869   0   0   0 # cp
    238      1   1  0.000000    27.265310639    22.500000000    36.362248311   0   0   0 # cp
    239      1   1  0.000000    26.035311179    22.500000000    37.072388830   0   0   0 # cp
    240      1   1  0.000000    27.265310639    22.500000000    34.941967272   0   0   0 # cp
    241      1   1  0.000000    28.495310100    22.500000000    38.492669869   0   0   0 # cp
    242      1   1  0.000000    29.725309560    22.500000000    36.362248311   0   0   0 # cp
    243      1   1  0.000000    28.495310100    22.500000000    37.072388830   0   0   0 # cp
    244      1   1  0.000000    29.725309560    22.500000000    34.941967272   0   0   0 # cp
    245      1   1  0.000000    30.955309020    22.500000000    38.492669869   0   0   0 # cp
    246      1   1  0.000000    32.185308480    22.500000000    36.362248311   0   0   0 # cp
    247      1   1  0.000000    30.955309020    22.500000000    37.072388830   0   0   0 # cp
    248      1   1  0.000000    32.185308480    22.500000000    34.941967272   0   0   0 # cp
    249      1   1  0.000000    33.415307940    22.500000000    38.492669869   0   0   0 # cp
    250      1   1  0.000000    34.645307400    22.500000000    36.362248311   0   0   0 # cp
    251      1   1  0.000000    33.415307940    22.500000000    37.072388830   0   0   0 # cp
    252      1   1  0.000000    34.645307400    22.500000000    34.941967272   0   0   0 # cp
    253      1   1  0.000000    35.875306861    22.500000000    38.492669869   0   0   0 # cp
    254      1   1  0.000000    37.105306321    22.500000000    36.362248311   0   0   0 # cp
    255      1   1  0.000000    35.875306861    22.500000000    37.072388830   0   0   0 # cp
    256      1   1  0.000000    37.105306321    22.500000000    34.941967272   0   0   0 # cp
    257      1   1  0.000000    38.335305781    22.500000000    38.492669869   0   0   0 # cp
    258      1   1  0.000000    39.565305241    22.500000000    36.362248311   0   0   0 # cp
    259      1   1  0.000000    38.335305781    22.500000000    37.072388830   0   0   0 # cp
    260      1   1  0.000000    39.565305241    22.500000000    34.941967272   0   0   0 # cp
    261      1   1  0.000000    40.795304701    22.500000000    38.492669869   0   0   0 # cp
    262      1   1  0.000000    42.025304162    22.500000000    36.362248311   0   0   0 # cp
    263      1   1  0.000000    40.795304701    22.500000000    37.072388830   0   0   0 # cp
    264      1   1  0.000000    42.025304162    22.500000000    34.941967272   0   0   0 # cp
    265      1   1  0.000000    22.345312799    22.500000000    32.101405194   0   0   0 # cp
    266      1   1  0.000000    22.345312799    22.500000000    30.681124156   0   0   0 # cp
    267      1   1  0.000000    23.575312259    22.500000000    34.231826753   0   0   0 # cp
    268      1   1  0.000000    24.805311719    22.500000000    32.101405194   0   0   0 # cp
    269      1   1  0.000000    23.575312259    22.500000000    32.811545714   0   0   0 # cp
    270      1   1  0.000000    24.805311719    22.500000000    30.681124156   0   0   0 # cp
    271      1   1  0.000000    26.035311179    22.500000000    34.231826753   0   0   0 # cp
    272      1   1  0.000000    27.265310639    22.500000000    32.101405194   0   0   0 # cp
    273      1   1  0.000000    26.035311179    22.500000000    32.811545714   0   0   0 # cp
    274      1   1  0.000000    27.265310639    22.500000000    30.681124156   0   0   0 # cp
    275      1   1  0.000000    28.495310100    22.500000000    34.231826753   0   0   0 # cp
    276      1   1  0.000000    29.725309560    22.500000000    32.101405194   0   0   0 # cp
    277      1   1  0.000000    28.495310100    22.500000000    32.811545714   0   0   0 # cp
    278      1   1  0.000000    29.725309560    22.500000000    30.681124156   0   0   0 # cp
    279      1   1  0.000000    30.955309020    22.500000000    34.231826753   0   0   0 # cp
    280      1   1  0.000000    32.185308480    22.500000000    32.101405194   0   0   0 # cp
    281      1   1  0.000000    30.955309020    22.500000000    32.811545714   0   0   0 # cp
    282      1   1  0.000000    32.185308480    22.500000000    30.681124156   0   0   0 # cp
    283      1   1  0.000000    33.415307940    22.500000000    34.231826753   0   0   0 # cp
    284      1   1  0.000000    34.645307400    22.500000000    32.101405194   0   0   0 # cp
    285      1   1  0.000000    33.415307940    22.500000000    32.811545714   0   0   0 # cp
    286      1   1  0.000000    34.645307400    22.500000000    30.681124156   0   0   0 # cp
    287      1   1  0.000000    35.875306861    22.500000000    34.231826753   0   0   0 # cp
    288      1   1  0.000000    37.105306321    22.500000000    32.101405194   0   0   0 # cp
    289      1   1  0.000000    35.875306861    22.500000000    32.811545714   0   0   0 # cp
    290      1   1  0.000000    37.105306321    22.500000000    30.681124156   0   0   0 # cp
    291      1   1  0.000000    38.335305781    22.500000000    34.231826753   0   0   0 # cp
    292      1   1  0.000000    39.565305241    22.500000000    32.101405194   0   0   0 # cp
    293      1   1  0.000000    38.335305781    22.500000000    32.811545714   0   0   0 # cp